/*--------------------------------*- C++ -*----------------------------------*\
| =========                 |                                                 |
| \\      /  F ield         | OpenFOAM: The Open Source CFD Toolbox           |
|  \\    /   O peration     | Version:  2.2.0                                 |
|   \\  /    A nd           | Web:      www.OpenFOAM.org                      |
|    \\/     M anipulation  |                                                 |
\*---------------------------------------------------------------------------*/
FoamFile
{
    version     2.0;
    format      ascii;
    class       volScalarField;
    location    "0";
    object      alpha1;
}
// * * * * * * * * * * * * * * * * * * * * * * * * * * * * * * * * * * * * * //

dimensions      [0 0 0 0 0 0 0];

internalField   uniform 0;

boundaryField
{
    axis
    {
        type            empty;
    }
    front
    {
        type            wedge;
    }
    back
    {
        type            wedge;
    }
    top_water
    {
        type            inletOutlet;
        inletValue      uniform 1;
        value           uniform 1;
    }
    top_capillary
    {
        type            constantAlphaContactAngle;
        theta0          135;
        limit           gradient;
        value           uniform 0;
    }
    bottom
    {
        type            zeroGradient;
    }
    out
    {
        type            zeroGradient;
    }
}


// ************************************************************************* //
